[
    {
        "priority": 0,
        "id": "22",
        "mode": "01",
        "pid": 15,
        "length": 2,
        "description": "Air Fuel Ratio",
        "longDescription": "Calculated AFR [B: 1,S: 2]",
        "min": 0,
        "max": 20,
        "units": "AFR",
        "formula": "parseFloat((-5.5905 * (A/200) + 17.64).toFixed(2))",
        "cacheable": false
    },
    {
        "priority": 0,
        "id": "23",
        "mode": "01",
        "pid": 15,
        "length": 2,
        "description": "O2 voltage",
        "longDescription": "O2 voltage [B: 1,S: 2]",
        "min": "0",
        "max": "1",
        "units": "V",
        "formula": "parseFloat(A / 200)",
        "cacheable": false
    },
	{
		"id": "1",
		"mode": "01",
		"pid": "00",
		"length": 4,
		"description": "PIDs supported [01 - 20]",
		"min": "",
		"max": "",
		"units": "",
		"formula": ""
	},
	{
		"id": "2",
		"mode": "01",
		"pid": "01",
		"length": 4,
		"description": "Monitor status since DTCs cleared. (Includes malfunction indicator lamp (MIL) status and number of DTCs.)",
		"min": "",
		"max": "",
		"units": "",
		"formula": ""
	},
	{
		"id": "3",
		"mode": "01",
		"pid": "02",
		"length": 8,
		"description": "Freeze DTC",
		"min": "",
		"max": "",
		"units": "",
		"formula": ""
	},
	{
	    "priority": 3, 
		"id": "4",
		"mode": "01",
		"pid": "03",
		"length": 2,
		"description": "Fuel system status",
		"min": "0",
		"max": "0",
		"units": "",
		"formula": ""
	},
	{
		"priority": 0,
		"id": "5",
		"mode": "01",
		"pid": "04",
		"length": 1,
		"description": "Engine load value",
        "longDescription": "Calculated engine load value",
		"min": 0,
		"max": 100,
		"units": "%",
		"formula": "parseFloat((A*100/255).toFixed(2))"
	},
	{
	    "priority": 3,
		"id": "6",
		"type": "INT",
		"mode": "01",
		"pid": "05",
		"length": 1,
		"description": "Coolant temperature",
		"min": -40,
		"max": 140,
		"units": "C",
		"formula": "A-40"
	},
	{
	    "priority": 0,
		"id": "7",
		"mode": "01",
		"pid": "06",
		"length": 1,
		"description": "Short fuel trim",
		"longDescription": "Short term fuel trim \n [B: 1]",
		"min": "-100",
		"max": "99.22",
		"units": "%",
		"formula": "(A-128) * 100/128"
	},
	{

        "priority": 3,		
		"id": "8",
		"mode": "01",
		"pid": "07",
		"length": 1,
		"description": "Long fuel trim",
		"longDescription": "Long term fuel trim \n [B: 1]",
		"min": "-100",
		"max": "99.22",
		"units": "%",
		"formula": " parseFloat( ((A-128) * 100/128).toFixed(2) )"
	},
	{
		"id": "9",
		"mode": "01",
		"pid": "08",
		"length": 1,
		"description": "Short term fuel trim \n [Bank: 2]",
		"min": "-100",
		"max": "99.22",
		"units": "%",
		"formula": "(A-128) * 100/128"
	},
	{
		"id": "10",
		"mode": "01",
		"pid": "09",
		"length": 1,
		"description": "Long term fuel trim \n [Bank: 2]",
		"min": "-100",
		"max": "99.22",
		"units": "%",
		"formula": "(A-128) * 100/128"
	},
	{
		"id": "11",
		"mode": "01",
		"pid": "0A",
		"length": 1,
		"description": "Fuel pressure",
		"min": 0,
		"max": 765,
		"units": "kPa",
		"formula": "A*3"
	},
	{
		"priority": 0,
		"id": "12",
		"mode": "01",
		"pid": "0B",
		"length": 1,
		"description": "Boost",
		"longDescription": "Calculated Boost",
        "min": -0.9,
		"max": 1.7,
		"units": "bar",
		"formula": "parseFloat(((A/100)-1).toFixed(2))",
		"cacheable": false        
		
	},
	
	{
		"id": "99",
		"mode": "01",
		"pid": "0B",
		"length": 1,
		"description": "Intake manifold pressure",
		"min": -1.0,
		"max": 2.3,
		"units": "bar",
		"formula": "parseFloat((A/100).toFixed(2))",
        "cacheable": false        

	},
	
	
	{
		"priority": 0,
		"id": "13",
		"type": "INT",
		"mode": "01",
		"pid": "0C",
		"length": 2,
		"description": "Engine RPM",
		"min": 0,
		"max": "7000",
		"units": "rpm",
		"formula": "(((A*256)+B)/4)"
	},
	{
	    "priority": 0,
		"id": "14",
		"type": "INT",
		"mode": "01",
		"pid": "0D",
		"length": 1,
		"description": "Vehicle speed",
		"min": 0,
		"max": 255,
		"units": "km/h",
		"formula": "A"
	},
	{
	    "priority": 1,
		"id": "15",
		"mode": "01",
		"pid": "0E",
		"length": 1,
		"description": "Timing advance",
		"min": -64,
		"max": 63.5,
		"units": "deg",
		"formula": "A/2 - 64"
	},
	{
	    "priority": 2,
		"id": "16",
		"type": "INT",
		"mode": "01",
		"pid": "0F",
		"length": 1,
		"description": "Intake air temperature",
		"min": -40,
		"max": 100,
		"units": "C",
		"formula": "A-40"
	},
	{
	    "priority": 1, 
		"id": "17",
		"mode": "01",
		"pid": "10",
		"length": 2,
		"description": "MAF air flow rate",
		"min": 0,
		"max": 655.35,
		"units": "g/s",
		"formula": "((A*256)+B) / 100"
	},
	{
        "priority": 0,
		"id": "18",
		"type": "INT",
		"mode": "01",
		"pid": 11,
		"length": 1,
		"description": "Throttle position",
		"min": 0,
		"max": 100,
		"units": "%",
		"formula": "Math.round((A*100/255))"
	},
	{
		"id": "19",
		"mode": "01",
		"pid": 12,
		"length": 1,
		"description": "Commanded secondary air status",
		"min": "",
		"max": "",
		"units": "",
		"formula": ""
	},
	{
		"id": "20",
		"mode": "01",
		"pid": 13,
		"length": 1,
		"description": "Oxygen sensors present",
		"min": "",
		"max": "",
		"units": "",
		"formula": "A"
	},
	{
		"id": "21",
		"mode": "01",
		"pid": 14,
		"length": 2,
		"description": "Calculated AFR [B: 1,S: 1]",
		"min": "0",
		"max": "20",
		"units": "V",
		"formula": "parseFloat((-5.5905 * (A/200) + 17.64).toFixed(2))"
	},
	{
		"id": "24",
		"mode": "01",
		"pid": 16,
		"length": 2,
		"description": "O2 voltage [B: 1,S: 3]",
		"min": "0",
		"max": "5",
		"units": "V",
		"formula": "parseFloat((A / 200).toFixed(2))"
	},
	{
		"id": "25",
		"mode": "01",
		"pid": 17,
		"length": 2,
		"description": "O2 voltage [B: 1, S: 4]",
		"min": "0",
		"max": "5",
		"units": "V",
		"formula": "parseFloat((A / 200).toFixed(2))"
	},
	{
		"id": "26",
		"mode": "01",
		"pid": 18,
		"length": 2,
		"description": "O2 voltage [B: 2, S: 1]",
		"min": "0",
		"max": "5",
		"units": "V",
		"formula": "parseFloat((A / 200).toFixed(2))"
	},
	{
		"id": "27",
		"mode": "01",
		"pid": 19,
		"length": 2,
		"description": "O2 voltage [B: 2, S: 2]",
		"min": "0",
		"max": "5",
		"units": "V",
		"formula": "parseFloat((A / 200).toFixed(2))"
	},
	{
		"id": "28",
		"mode": "01",
		"pid": "1A",
		"length": 2,
		"description": "O2 voltage [B: 2, S: 3]",
		"min": "0",
		"max": "5",
		"units": "V",
		"formula": "parseFloat((A / 200).toFixed(2))"
	},
	{
		"id": "29",
		"mode": "01",
		"pid": "1B",
		"length": 2,
		"description": "O2 voltage [B: 2, S: 4]",
		"min": "0",
		"max": "5",
		"units": "V",
		"formula": "parseFloat((A / 200).toFixed(2))"
	},
	{
		"id": "30",
		"mode": "01",
		"pid": "1C",
		"length": 1,
		"description": "OBD standards this vehicle conforms to",
		"min": "",
		"max": "",
		"units": "",
		"formula": ""
	},
	{
		"id": "31",
		"mode": "01",
		"pid": "1D",
		"length": 1,
		"description": "Oxygen sensors present",
		"min": "",
		"max": "",
		"units": "",
		"formula": "Similar to PID 13, but [A0..A7] == [B1S1, B1S2, B2S1, B2S2, B3S1, B3S2, B4S1, B4S2]"
	},
	{
		"id": "32",
		"mode": "01",
		"pid": "1E",
		"length": 1,
		"description": "Auxiliary input status",
		"min": "",
		"max": "",
		"units": "",
		"formula": "A0 == Power Take Off (PTO) status (1 == active)[A1..A7] not used"
	},
	{
		"id": "33",
		"mode": "01",
		"pid": "1F",
		"length": 2,
		"description": "Run time since engine start",
		"min": 0,
		"max": "65.535",
		"units": "seconds",
		"formula": "(A*256)+B"
	},
	{
		"id": "34",
		"mode": "01",
		"pid": "21",
		"length": 2,
		"description": "Distance traveled with malfunction indicator lamp (MIL) on",
		"min": 0,
		"max": "65.535",
		"units": "km",
		"formula": "(A*256)+B"
	},
	{
		"id": "35",
		"mode": "01",
		"pid": "22",
		"length": 2,
		"description": "Fuel Rail Pressure (relative to manifold vacuum)",
		"min": 0,
		"max": 5177.265,
		"units": "kPa",
		"formula": "(((A*256)+B) * 10) / 128"
	},
	{
		"id": "36",
		"mode": "01",
		"pid": 23,
		"length": 2,
		"description": "Fuel Rail Pressure (diesel)",
		"min": 0,
		"max": 655350,
		"units": "kPa",
		"formula": "((A*256)+B) * 10"
	},
	{
		"id": "37",
		"mode": "01",
		"pid": 24,
		"length": 4,
		"description": "O2S1_WR_lambda(1):Equivalence Ratio Voltage",
		"min": "00",
		"max": 28,
		"units": "N/AV",
		"formula": "((A*256)+B)/32768((C*256)+D)/8192"
	},
	{
		"id": "38",
		"mode": "01",
		"pid": 25,
		"length": 4,
		"description": "O2S2_WR_lambda(1):Equivalence Ratio Voltage",
		"min": "00",
		"max": 28,
		"units": "N/AV",
		"formula": "((A*256)+B)/32768((C*256)+D)/8192"
	},
	{
		"id": "39",
		"mode": "01",
		"pid": 26,
		"length": 4,
		"description": "O2S3_WR_lambda(1):Equivalence Ratio Voltage",
		"min": "00",
		"max": 28,
		"units": "N/AV",
		"formula": "((A*256)+B)/32768((C*256)+D)/8192"
	},
	{
		"id": "40",
		"mode": "01",
		"pid": 27,
		"length": 4,
		"description": "O2S4_WR_lambda(1):Equivalence Ratio Voltage",
		"min": "00",
		"max": 28,
		"units": "N/AV",
		"formula": "((A*256)+B)/32768((C*256)+D)/8192"
	},
	{
		"id": "41",
		"mode": "01",
		"pid": 28,
		"length": 4,
		"description": "O2S5_WR_lambda(1):Equivalence Ratio Voltage",
		"min": "00",
		"max": 28,
		"units": "N/AV",
		"formula": "((A*256)+B)/32768((C*256)+D)/8192"
	},
	{
		"id": "42",
		"mode": "01",
		"pid": 29,
		"length": 4,
		"description": "O2S6_WR_lambda(1):Equivalence Ratio Voltage",
		"min": "00",
		"max": 28,
		"units": "N/AV",
		"formula": "((A*256)+B)/32768((C*256)+D)/8192"
	},
	{
		"id": "43",
		"mode": "01",
		"pid": "2A",
		"length": 4,
		"description": "O2S7_WR_lambda(1):Equivalence Ratio Voltage",
		"min": "00",
		"max": 28,
		"units": "N/AV",
		"formula": "((A*256)+B)/32768((C*256)+D)/8192"
	},
	{
		"id": "44",
		"mode": "01",
		"pid": "2B",
		"length": 4,
		"description": "O2S8_WR_lambda(1):Equivalence Ratio Voltage",
		"min": "00",
		"max": 28,
		"units": "N/AV",
		"formula": "((A*256)+B)/32768((C*256)+D)/8192"
	},
	{
		"id": "45",
		"mode": "01",
		"pid": "2C",
		"length": 1,
		"description": "Commanded EGR",
		"min": 0,
		"max": 100,
		"units": "%",
		"formula": "100*A/255"
	},
	{
		"id": "46",
		"mode": "01",
		"pid": "2D",
		"length": 1,
		"description": "EGR Error",
		"min": -100,
		"max": 99.22,
		"units": "%",
		"formula": "(A-128) * 100/128"
	},
	{
		"id": "47",
		"mode": "01",
		"pid": "2E",
		"length": 1,
		"description": "Commanded evaporative purge",
		"min": 0,
		"max": 100,
		"units": "%",
		"formula": "100*A/255"
	},
	{
		"id": "48",
		"mode": "01",
		"pid": "2F",
		"length": 1,
		"description": "Fuel Level Input",
		"min": 0,
		"max": 100,
		"units": "%",
		"formula": "100*A/255"
	},
	{
		"id": "49",
		"mode": "01",
		"pid": 30,
		"length": 1,
		"description": "# of warm-ups since codes cleared",
		"min": 0,
		"max": 255,
		"units": "N/A",
		"formula": "A"
	},
	{
		"id": "50",
		"mode": "01",
		"pid": 31,
		"length": 2,
		"description": "Distance traveled since codes cleared",
		"min": 0,
		"max": "65.535",
		"units": "km",
		"formula": "(A*256)+B"
	},
	{
		"id": "51",
		"mode": "01",
		"pid": 32,
		"length": 2,
		"description": "Evap. System Vapor Pressure",
		"min": "-8.192",
		"max": "8.192",
		"units": "Pa",
		"formula": "((A*256)+B)/4"
	},
	{
		"id": "52",
		"mode": "01",
		"pid": 33,
		"length": 1,
		"description": "Barometric pressure",
		"min": 0,
		"max": 255,
		"units": "kPa",
		"formula": "A"
	},
	{
		"id": "53",
		"mode": "01",
		"pid": 34,
		"length": 4,
		"description": "O2S1_WR_lambda(1):Equivalence Ratio Current",
		"min": "0",
		"max": 2128,
		"units": "N/AmA",
		"formula": "((A*256)+B)/32768((C*256)+D)/256 - 128"
	},
	{
		"id": "54",
		"mode": "01",
		"pid": 35,
		"length": 4,
		"description": "O2S2_WR_lambda(1):Equivalence Ratio Current",
		"min": "0",
		"max": 2128,
		"units": "N/AmA",
		"formula": "((A*256)+B)/32768((C*256)+D)/256 - 128"
	},
	{
		"id": "55",
		"mode": "01",
		"pid": 36,
		"length": 4,
		"description": "O2S3_WR_lambda(1):Equivalence Ratio Current",
		"min": "0",
		"max": 2128,
		"units": "N/AmA",
		"formula": "((A*256)+B)/327685((C*256)+D)/256 - 128"
	},
	{
		"id": "56",
		"mode": "01",
		"pid": 37,
		"length": 4,
		"description": "O2S4_WR_lambda(1):Equivalence Ratio Current",
		"min": "0",
		"max": 2128,
		"units": "N/AmA",
		"formula": "((A*256)+B)/32768((C*256)+D)/256 - 128"
	},
	{
		"id": "57",
		"mode": "01",
		"pid": 38,
		"length": 4,
		"description": "O2S5_WR_lambda(1):Equivalence Ratio Current",
		"min": "0",
		"max": 2128,
		"units": "N/AmA",
		"formula": "((A*256)+B)/32768((C*256)+D)/256 - 128"
	},
	{
		"id": "58",
		"mode": "01",
		"pid": 39,
		"length": 4,
		"description": "O2S6_WR_lambda(1):Equivalence Ratio Current",
		"min": "0",
		"max": 2128,
		"units": "N/AmA",
		"formula": "((A*256)+B)/32768((C*256)+D)/256 - 128"
	},
	{
		"id": "59",
		"mode": "01",
		"pid": "3A",
		"length": 4,
		"description": "O2S7_WR_lambda(1):Equivalence Ratio Current",
		"min": "0",
		"max": 2128,
		"units": "N/AmA",
		"formula": "((A*256)+B)/32768((C*256)+D)/256 - 128"
	},
	{
		"id": "60",
		"mode": "01",
		"pid": "3B",
		"length": 4,
		"description": "O2S8_WR_lambda(1):Equivalence Ratio Current",
		"min": "0",
		"max": 2128,
		"units": "N/AmA",
		"formula": "((A*256)+B)/32768((C*256)+D)/256 - 128"
	},
	{
		"id": "61",
		"mode": "01",
		"pid": "3C",
		"length": 2,
		"description": "Catalyst TemperatureBank 1, Sensor 1",
		"min": -40,
		"max": "6.513",
		"units": "C",
		"formula": "((A*256)+B)/10 - 40"
	},
	{
		"id": "62",
		"mode": "01",
		"pid": "3D",
		"length": 2,
		"description": "Catalyst TemperatureBank 2, Sensor 1",
		"min": -40,
		"max": "6.513",
		"units": "C",
		"formula": "((A*256)+B)/10 - 40"
	},
	{
		"id": "63",
		"mode": "01",
		"pid": "3E",
		"length": 2,
		"description": "Catalyst TemperatureBank 1, Sensor 2",
		"min": -40,
		"max": "6.513",
		"units": "C",
		"formula": "((A*256)+B)/10 - 40"
	},
	{
		"id": "64",
		"mode": "01",
		"pid": "3F",
		"length": 2,
		"description": "Catalyst TemperatureBank 2, Sensor 2",
		"min": -40,
		"max": "6.513",
		"units": "C",
		"formula": "((A*256)+B)/10 - 40"
	},
	{
		"id": "65",
		"mode": "01",
		"pid": 40,
		"length": 4,
		"description": "PIDs supported 41-60",
		"min": "",
		"max": "",
		"units": "",
		"formula": ""
	},
	{
		"id": "66",
		"mode": "01",
		"pid": 41,
		"length": 4,
		"description": "Monitor status this drive cycle",
		"min": "",
		"max": "",
		"units": "",
		"formula": "Bit encoded. See below."
	},
	{
		"id": "67",
		"mode": "01",
		"pid": 42,
		"length": 2,
		"description": "Control module voltage",
		"min": 0,
		"max": 65.535,
		"units": "V",
		"formula": "((A*256)+B)/1000"
	},
	{
		"id": "68",
		"mode": "01",
		"pid": 43,
		"length": 2,
		"description": "Absolute load value",
		"min": 0,
		"max": "25.700",
		"units": "%",
		"formula": "((A*256)+B)*100/255"
	},
	{
		"id": "69",
		"mode": "01",
		"pid": 44,
		"length": 2,
		"description": "Command equivalence ratio",
		"min": 0,
		"max": 2,
		"units": "N/A",
		"formula": "((A*256)+B)/32768"
	},
	{
		"id": "70",
		"mode": "01",
		"pid": 45,
		"length": 1,
		"description": "Relative throttle position",
		"min": 0,
		"max": 100,
		"units": "%",
		"formula": "A*100/255"
	},
	{
		"id": "71",
		"mode": "01",
		"pid": 46,
		"length": 1,
		"description": "Ambient air temperature",
		"min": -40,
		"max": 215,
		"units": "C",
		"formula": "A-40"
	},
	{
		"id": "72",
		"mode": "01",
		"pid": 47,
		"length": 1,
		"description": "Absolute throttle position B",
		"min": 0,
		"max": 100,
		"units": "%",
		"formula": "A*100/255"
	},
	{
		"id": "73",
		"mode": "01",
		"pid": 48,
		"length": 1,
		"description": "Absolute throttle position C",
		"min": 0,
		"max": 100,
		"units": "%",
		"formula": "A*100/255"
	},
	{
		"id": "74",
		"mode": "01",
		"pid": 49,
		"length": 1,
		"description": "Accelerator pedal position D",
		"min": 0,
		"max": 100,
		"units": "%",
		"formula": "A*100/255"
	},
	{
		"id": "75",
		"mode": "01",
		"pid": "4A",
		"length": 1,
		"description": "Accelerator pedal position E",
		"min": 0,
		"max": 100,
		"units": "%",
		"formula": "A*100/255"
	},
	{
		"id": "76",
		"mode": "01",
		"pid": "4B",
		"length": 1,
		"description": "Accelerator pedal position F",
		"min": 0,
		"max": 100,
		"units": "%",
		"formula": "A*100/255"
	},
	{
		"id": "77",
		"mode": "01",
		"pid": "4C",
		"length": 1,
		"description": "Commanded throttle actuator",
		"min": 0,
		"max": 100,
		"units": "%",
		"formula": "A*100/255"
	},
	{
		"id": "78",
		"mode": "01",
		"pid": "4D",
		"length": 2,
		"description": "Time run with MIL on",
		"min": 0,
		"max": "65.535",
		"units": "minutes",
		"formula": "(A*256)+B"
	},
	{
		"id": "79",
		"mode": "01",
		"pid": "4E",
		"length": 2,
		"description": "Time since trouble codes cleared",
		"min": 0,
		"max": "65.535",
		"units": "minutes",
		"formula": "(A*256)+B"
	},
	{
		"id": "80",
		"mode": "01",
		"pid": 51,
		"length": 1,
		"description": "Fuel Type",
		"min": "",
		"max": "",
		"units": "",
		"formula": "From fuel type table see below"
	},
	{
		"id": "81",
		"mode": "01",
		"pid": 52,
		"length": 1,
		"description": "Ethanol fuel %",
		"min": 0,
		"max": 100,
		"units": "%",
		"formula": "A*100/255"
	},
	{
		"id": "82",
		"mode": "01",
		"pid": 53,
		"length": 2,
		"description": "Absoulute Evap system Vapour Pressure",
		"min": 0,
		"max": 327675,
		"units": "kpa",
		"formula": "1/200 per bit"
	}
]