{
	"metadata": [
	],
	"livedata": [
		{
			"id": "33",
			"mode": "01",
			"pid": "1F",
			"length": 2,
			"description": "Run time since engine start",
			"min": 0,
			"max": "65535",
			"units": "seconds",
			"formula": "(A*256)+B",
			"stable": false
		},
		{
			"id": "34",
			"mode": "01",
			"pid": "21",
			"length": 2,
			"description": "Distance traveled with malfunction indicator lamp MIL on",
			"min": 0,
			"max": "65535",
			"units": "km",
			"formula": "(A*256)+B",
			"stable": false
		},
		{
			"id": "35",
			"mode": "01",
			"pid": "22",
			"length": 2,
			"description": "Fuel Rail Pressure",
			"min": 0,
			"max": 5177265,
			"units": "kPa",
			"formula": "(((A*256)+B) * 10) / 128",
			"stable": false
		},
		{
			"id": "36",
			"mode": "01",
			"pid": 23,
			"length": 2,
			"description": "Fuel Rail Pressure - diesel",
			"min": 0,
			"max": 655350,
			"units": "kPa",
			"formula": "((A*256)+B) * 10",
			"stable": false
		},
		{
			"priority": 0,
			"id": "37",
			"mode": "01",
			"pid": 24,
			"length": 4,
			"description": "Oxygen Sensor 1\nAir-Fuel Equivalence Ratio",
			"min": 0,
			"max": 10,
			"units": "ratio",
			"formula": "((A*256)+B)/32768",
			"stable": false
		},
		{
			"priority": 0,
			"id": "38",
			"mode": "01",
			"pid": 25,
			"length": 4,
			"description": "Oxygen Sensor 2\nAir-Fuel Equivalence Ratio",
			"min": 0,
			"max": 10,
			"units": "ratio",
			"formula": "((A*256)+B)/32768",
			"stable": false
		},
		{
			"priority": 0,
			"id": "39",
			"mode": "01",
			"pid": 26,
			"length": 4,
			"description": "Oxygen Sensor 3\nAir-Fuel Equivalence Ratio",
			"min": 0,
			"max": 10,
			"units": "ratio",
			"formula": "((A*256)+B)/32768",
			"stable": false
		},
		{
			"priority": 0,
			"id": "40",
			"mode": "01",
			"pid": 27,
			"length": 4,
			"description": "Oxygen Sensor 4\nAir-Fuel Equivalence Ratio",
			"min": 0,
			"max": 10,
			"units": "ratio",
			"formula": "((A*256)+B)/32768",
			"stable": false
		},
		{
			"priority": 0,
			"id": "41",
			"mode": "01",
			"pid": 28,
			"length": 4,
			"description": "Oxygen Sensor 5\nAir-Fuel Equivalence Ratio",
			"min": 0,
			"max": 10,
			"units": "ratio",
			"formula": "((A*256)+B)/32768",
			"stable": false
		},
		{
			"priority": 0,
			"id": "42",
			"mode": "01",
			"pid": 29,
			"length": 4,
			"description": "Oxygen Sensor 6\nAir-Fuel Equivalence Ratio",
			"min": 0,
			"max": 10,
			"units": "ratio",
			"formula": "((A*256)+B)/32768",
			"stable": false
		},
		{
			"priority": 0,
			"id": "43",
			"mode": "01",
			"pid": "2A",
			"length": 4,
			"description": "Oxygen Sensor 7\nAir-Fuel Equivalence Ratio",
			"min": 0,
			"max": 10,
			"units": "ratio",
			"formula": "((A*256)+B)/32768",
			"stable": false
		},
		{
			"priority": 0,
			"id": "44",
			"mode": "01",
			"pid": "2B",
			"length": 4,
			"description": "Oxygen Sensor 8\nAir-Fuel Equivalence Ratio",
			"min": 0,
			"max": 10,
			"units": "ratio",
			"formula": "((A*256)+B)/32768",
			"stable": false
		},
		{
			"id": "45",
			"mode": "01",
			"pid": "2C",
			"length": 1,
			"description": "Commanded EGR",
			"min": 0,
			"max": 100,
			"units": "%",
			"formula": "100*A/255",
			"stable": false
		},
		{
			"id": "46",
			"mode": "01",
			"pid": "2D",
			"length": 1,
			"description": "EGR Error",
			"min": -100,
			"max": 9922,
			"units": "%",
			"formula": "(A-128) * 100/128",
			"stable": false
		},
		{
			"id": "47",
			"mode": "01",
			"pid": "2E",
			"length": 1,
			"description": "Commanded evaporative purge",
			"min": 0,
			"max": 100,
			"units": "%",
			"formula": "100*A/255",
			"stable": false
		},
		{
			"id": "48",
			"mode": "01",
			"pid": "2F",
			"length": 1,
			"description": "Fuel Level Input",
			"min": 0,
			"max": 100,
			"units": "%",
			"formula": "100*A/255",
			"stable": false
		},
		{
			"id": "50",
			"mode": "01",
			"pid": 31,
			"length": 2,
			"description": "Distance traveled since codes cleared",
			"min": 0,
			"max": "65535",
			"units": "km",
			"formula": "(A*256)+B",
			"stable": false
		},
		{
			"id": "51",
			"mode": "01",
			"pid": 32,
			"length": 2,
			"description": "Evap Pressure",
			"min": "-8192",
			"max": "8192",
			"units": "Pa",
			"formula": "((A*256)+B)/4",
			"stable": false
		},
		{
			"id": "52",
			"mode": "01",
			"pid": 33,
			"length": 1,
			"description": "Barometric pressure",
			"min": 0,
			"max": 255,
			"units": "kPa",
			"formula": "A",
			"stable": false
		},
		{
			"id": "53",
			"mode": "01",
			"pid": 34,
			"length": 4,
			"description": "Oxygen Sensor 1\nAir-Fuel Equivalence Ratio",
			"min": "0",
			"max": 2128,
			"units": "ratio",
			"formula": "((A*256)+B)/32768",
			"stable": false
		},
		{
			"id": "54",
			"mode": "01",
			"pid": 35,
			"length": 4,
			"description": "Oxygen Sensor 2\nAir-Fuel Equivalence Ratio",
			"min": "0",
			"max": 2128,
			"units": "ratio",
			"formula": "((A*256)+B)/32768",
			"stable": false
		},
		{
			"id": "55",
			"mode": "01",
			"pid": 36,
			"length": 4,
			"description": "Oxygen Sensor 3\nAir-Fuel Equivalence Ratio",
			"min": "0",
			"max": 2128,
			"units": "ratio",
			"formula": "((A*256)+B)/327685",
			"stable": false
		},
		{
			"id": "56",
			"mode": "01",
			"pid": 37,
			"length": 4,
			"description": "Oxygen Sensor 4\nAir-Fuel Equivalence Ratio",
			"min": "0",
			"max": 2128,
			"units": "ratio",
			"formula": "((A*256)+B)/32768",
			"stable": false
		},
		{
			"id": "57",
			"mode": "01",
			"pid": 38,
			"length": 4,
			"description": "Oxygen Sensor 5\nAir-Fuel Equivalence Ratio",
			"min": "0",
			"max": 2128,
			"units": "ratio",
			"formula": "((A*256)+B)/32768",
			"stable": false
		},
		{
			"id": "58",
			"mode": "01",
			"pid": 39,
			"length": 4,
			"description": "Oxygen Sensor 6\nAir-Fuel Equivalence Ratio",
			"min": "0",
			"max": 2128,
			"units": "ratio",
			"formula": "((A*256)+B)/32768",
			"stable": false
		},
		{
			"id": "59",
			"mode": "01",
			"pid": "3A",
			"length": 4,
			"description": "Oxygen Sensor 7\nAir-Fuel Equivalence Ratio",
			"min": "0",
			"max": 2128,
			"units": "ratio",
			"formula": "((A*256)+B)/32768",
			"stable": false
		},
		{
			"id": "60",
			"mode": "01",
			"pid": "3B",
			"length": 4,
			"description": "Oxygen Sensor 8\nAir-Fuel Equivalence Ratio",
			"min": "0",
			"max": 2128,
			"units": "ratio",
			"formula": "((A*256)+B)/32768",
			"stable": false
		},
		{
			"id": "61",
			"mode": "01",
			"pid": "3C",
			"length": 2,
			"description": "Catalyst Temperature\nBank 1, Sensor 1",
			"min": -40,
			"max": "6513",
			"units": "C",
			"formula": "((A*256)+B)/10 - 40",
			"stable": false
		},
		{
			"id": "62",
			"mode": "01",
			"pid": "3D",
			"length": 2,
			"description": "Catalyst Temperature\nBank 2, Sensor 1",
			"min": -40,
			"max": "6513",
			"units": "C",
			"formula": "((A*256)+B)/10 - 40",
			"stable": false
		},
		{
			"id": "63",
			"mode": "01",
			"pid": "3E",
			"length": 2,
			"description": "Catalyst Temperature\nBank 1, Sensor 2",
			"min": -40,
			"max": "6513",
			"units": "C",
			"formula": "((A*256)+B)/10 - 40",
			"stable": false
		},
		{
			"id": "64",
			"mode": "01",
			"pid": "3F",
			"length": 2,
			"description": "Catalyst Temperature\nBank 2, Sensor 2",
			"min": -40,
			"max": "6513",
			"units": "C",
			"formula": "((A*256)+B)/10 - 40",
			"stable": false
		},
		{
			"id": "67",
			"mode": "01",
			"pid": 42,
			"length": 2,
			"description": "Control module voltage",
			"min": 0,
			"max": 65535,
			"units": "V",
			"formula": "((A*256)+B)/1000",
			"stable": false
		},
		{
			"id": "68",
			"mode": "01",
			"pid": 43,
			"length": 2,
			"description": "Absolute load value",
			"min": 0,
			"max": "25700",
			"units": "%",
			"formula": "((A*256)+B)*100/255",
			"stable": false
		},
		{
			"id": "69",
			"mode": "01",
			"pid": 44,
			"length": 2,
			"description": "Command equivalence ratio",
			"min": 0,
			"max": 2,
			"units": "ratio",
			"formula": "((A*256)+B)/32768",
			"stable": false
		},
		{
			"id": "70",
			"mode": "01",
			"pid": 45,
			"length": 1,
			"description": "Relative throttle position",
			"min": 0,
			"max": 100,
			"units": "%",
			"formula": "A*100/255",
			"stable": false
		},
		{
			"id": "71",
			"mode": "01",
			"pid": 46,
			"length": 1,
			"description": "Ambient air temperature",
			"min": -40,
			"max": 215,
			"units": "C",
			"formula": "A-40",
			"stable": false
		},
		{
			"id": "72",
			"mode": "01",
			"pid": 47,
			"length": 1,
			"description": "Absolute throttle position B",
			"min": 0,
			"max": 100,
			"units": "%",
			"formula": "A*100/255",
			"stable": false
		},
		{
			"id": "73",
			"mode": "01",
			"pid": 48,
			"length": 1,
			"description": "Absolute throttle position C",
			"min": 0,
			"max": 100,
			"units": "%",
			"formula": "A*100/255",
			"stable": false
		},
		{
			"id": "74",
			"mode": "01",
			"pid": 49,
			"length": 1,
			"description": "Accelerator pedal position D",
			"min": 0,
			"max": 100,
			"units": "%",
			"formula": "A*100/255",
			"stable": false
		},
		{
			"id": "75",
			"mode": "01",
			"pid": "4A",
			"length": 1,
			"description": "Accelerator pedal position E",
			"min": 0,
			"max": 100,
			"units": "%",
			"formula": "A*100/255",
			"stable": false
		},
		{
			"id": "76",
			"mode": "01",
			"pid": "4B",
			"length": 1,
			"description": "Accelerator pedal position F",
			"min": 0,
			"max": 100,
			"units": "%",
			"formula": "A*100/255",
			"stable": false
		},
		{
			"id": "77",
			"mode": "01",
			"pid": "4C",
			"length": 1,
			"description": "Commanded throttle actuator",
			"min": 0,
			"max": 100,
			"units": "%",
			"formula": "A*100/255"
		},
		{
			"id": "78",
			"mode": "01",
			"pid": "4D",
			"length": 2,
			"description": "Time run with MIL on",
			"min": 0,
			"max": "65535",
			"units": "minutes",
			"formula": "(A*256)+B",
			"stable": false
		},
		{
			"id": "79",
			"mode": "01",
			"pid": "4E",
			"length": 2,
			"description": "Time since trouble codes cleared",
			"min": 0,
			"max": "65535",
			"units": "minutes",
			"formula": "(A*256)+B",
			"stable": false
		},
		{
			"id": "81",
			"mode": "01",
			"pid": 52,
			"length": 1,
			"description": "Ethanol fuel %",
			"min": 0,
			"max": 100,
			"units": "%",
			"formula": "(A*100)/255",
			"stable": false
		},
		{
			"id": "82",
			"mode": "01",
			"pid": 53,
			"length": 2,
			"description": "Absoulute Evap system Vapour Pressure",
			"min": 0,
			"max": 327675,
			"units": "kpa",
			"formula": "(A*100)/255",
			"stable": false
		}
	]
}
